72
# CELL(abcABC):   15.11781    15.11781    15.11781    90.00000    90.00000    90.00000  Step:           0  Bead:       0 positions{atomic_unit}  cell{atomic_unit}
       H  1.08460e+00  1.20354e+00  9.29778e+00
       H  3.70657e+00  8.09945e+00  2.39018e+00
       H  2.87291e+00  9.74343e+00  1.01628e+01
       H  2.85904e-01  3.27498e+00  7.26384e+00
       H  2.44415e+00  3.26615e+00  1.46280e+01
       H  5.56532e+00  1.64891e+01  3.36396e+00
       H  4.90286e+00  1.08755e+01  8.21901e+00
       H  7.19601e+00  6.70519e+00  1.01215e+01
       H  1.46634e+00  8.80186e+00  4.42447e+00
       H  4.53816e+00  2.17444e+00  1.27199e+01
       H  6.34826e+00  1.25766e+01  5.38514e+00
       H  3.34577e+00  1.58146e+01  5.24934e+00
       H  6.92820e+00  1.08889e+01  1.56923e+01
       H  4.70310e+00  6.27288e+00  6.16301e+00
       H  2.00499e+00  6.03731e+00  1.17679e+01
       H  3.07104e+00  1.15805e+01 -1.40610e-01
       H  8.54840e-01  5.10067e+00  2.44177e+00
       H  5.26196e+00 -1.53531e+00  1.08696e+01
       H  2.52397e+00  1.40231e+01  1.67999e+00
       H  4.07474e+00  3.98218e+00  7.93876e+00
       H  6.26353e+00  4.08917e+00  3.39302e-01
       H  1.52025e+01 -8.88110e-01  1.30250e+01
       H  1.60611e+01  1.16647e+01  7.28289e+00
       H  6.16891e+00  8.48568e+00  1.39289e+01
       O  4.40773e+00  1.50712e+01  3.86401e+00
       O  9.25231e-01  7.41319e+00  1.11864e+01
       O  6.35624e+00 -1.70019e-01  1.15942e+01
       O  5.49341e+00  9.64859e+00  1.52414e+01
       O  7.30451e-02  3.58690e+00  1.54703e+00
       O  5.48898e+00  5.24074e+00  7.57312e+00
       O  3.82128e+00  3.81358e+00  1.34666e+01
       O  2.61356e+00  7.40711e+00  3.74396e+00
       O  7.17023e+00  1.10767e+01  6.17288e+00
       O  1.73977e+00  2.14616e+00  7.75613e+00
       O  3.51718e+00  1.14315e+01  9.29793e+00
       O  1.72196e+00  1.29694e+01  1.82120e-01
       H  8.55060e+00  1.13660e+00  9.33736e+00
       H  1.12863e+01  8.13720e+00  2.47701e+00
       H  1.03107e+01  9.66599e+00  1.01935e+01
       H  7.97707e+00  3.31609e+00  7.49498e+00
       H  9.99144e+00  3.06108e+00  1.50252e+01
       H  1.33875e+01  1.64483e+01  3.10183e+00
       H  1.23882e+01  1.08883e+01  8.22791e+00
       H -1.78610e-01  6.81169e+00  9.80778e+00
       H  9.17096e+00  8.92650e+00  4.56188e+00
       H  1.22361e+01  2.09238e+00  1.27843e+01
       H  1.40528e+01  1.27441e+01  5.17974e+00
       H  1.13145e+01  1.59381e+01  5.16498e+00
       H  1.43548e+01  1.09639e+01  1.55886e+01
       H  1.21142e+01  6.22399e+00  6.10886e+00
       H  9.50528e+00  5.97848e+00  1.20609e+01
       H  1.06095e+01  1.16423e+01 -3.06510e-01
       H  8.38725e+00  5.09632e+00  2.46819e+00
       H  1.29577e+01 -1.49981e+00  1.09315e+01
       H  1.00912e+01  1.39395e+01  1.55750e+00
       H  1.16678e+01  4.02930e+00  8.12327e+00
       H -1.51971e+00  4.12366e+00  4.63372e-01
       H  7.38045e+00 -9.70110e-01  1.30255e+01
       H  8.54683e+00  1.16605e+01  7.33089e+00
       H  1.38461e+01  8.60646e+00  1.37363e+01
       O  1.22023e+01  1.50934e+01  3.85560e+00
       O  8.30448e+00  7.31594e+00  1.15087e+01
       O  1.40292e+01 -9.23360e-02  1.15604e+01
       O  1.30439e+01  9.64270e+00  1.51416e+01
       O  7.63890e+00  3.50954e+00  1.53613e+00
       O  1.30216e+01  5.21589e+00  7.50726e+00
       O  1.14039e+01  3.65542e+00  1.36728e+01
       O  1.02109e+01  7.43645e+00  3.81210e+00
       O  1.47315e+01  1.11883e+01  5.92403e+00
       O  9.34148e+00  2.12614e+00  8.01884e+00
       O  1.09671e+01  1.12854e+01  9.38951e+00
       O  9.23759e+00  1.28727e+01  2.30780e-01
72
# CELL(abcABC):   15.11781    15.11781    15.11781    90.00000    90.00000    90.00000  Step:           1  Bead:       0 positions{atomic_unit}  cell{atomic_unit}
       H  1.08284e+00  1.20442e+00  9.29503e+00
       H  3.70519e+00  8.10272e+00  2.38872e+00
       H  2.87426e+00  9.74299e+00  1.01629e+01
       H  2.89796e-01  3.27469e+00  7.26057e+00
       H  2.44377e+00  3.26330e+00  1.46257e+01
       H  5.56893e+00  1.64877e+01  3.36616e+00
       H  4.90530e+00  1.08720e+01  8.21971e+00
       H  7.19042e+00  6.70247e+00  1.01251e+01
       H  1.47215e+00  8.79968e+00  4.42821e+00
       H  4.53719e+00  2.17970e+00  1.27229e+01
       H  6.34748e+00  1.25738e+01  5.38538e+00
       H  3.34720e+00  1.58123e+01  5.24946e+00
       H  6.92800e+00  1.08866e+01  1.56939e+01
       H  4.70295e+00  6.27081e+00  6.16898e+00
       H  2.00554e+00  6.03704e+00  1.17655e+01
       H  3.06987e+00  1.15802e+01 -1.39815e-01
       H  8.54759e-01  5.10510e+00  2.44379e+00
       H  5.25556e+00 -1.53759e+00  1.08675e+01
       H  2.52553e+00  1.40273e+01  1.68111e+00
       H  4.07504e+00  3.98238e+00  7.93976e+00
       H  6.26406e+00  4.09025e+00  3.40603e-01
       H  1.52006e+01 -8.92339e-01  1.30262e+01
       H  1.60537e+01  1.16604e+01  7.28179e+00
       H  6.17344e+00  8.47911e+00  1.39300e+01
       O  4.40809e+00  1.50701e+01  3.86408e+00
       O  9.23683e-01  7.41317e+00  1.11855e+01
       O  6.35793e+00 -1.68925e-01  1.15941e+01
       O  5.49395e+00  9.64799e+00  1.52409e+01
       O  7.27507e-02  3.58564e+00  1.54693e+00
       O  5.48887e+00  5.24144e+00  7.57388e+00
       O  3.82133e+00  3.81329e+00  1.34657e+01
       O  2.61277e+00  7.40734e+00  3.74482e+00
       O  7.17030e+00  1.10777e+01  6.17210e+00
       O  1.73911e+00  2.14577e+00  7.75553e+00
       O  3.51743e+00  1.14313e+01  9.29788e+00
       O  1.72233e+00  1.29693e+01  1.82315e-01
       H  8.54903e+00  1.13888e+00  9.33985e+00
       H  1.12897e+01  8.13275e+00  2.48013e+00
       H  1.03072e+01  9.66945e+00  1.01960e+01
       H  7.97318e+00  3.31805e+00  7.49544e+00
       H  9.99195e+00  3.06271e+00  1.50226e+01
       H  1.33896e+01  1.64487e+01  3.10125e+00
       H  1.23865e+01  1.08919e+01  8.22314e+00
       H -1.80382e-01  6.81345e+00  9.81335e+00
       H  9.17446e+00  8.92561e+00  4.56264e+00
       H  1.22352e+01  2.09343e+00  1.27798e+01
       H  1.40525e+01  1.27462e+01  5.18516e+00
       H  1.13140e+01  1.59427e+01  5.16541e+00
       H  1.43621e+01  1.09577e+01  1.55894e+01
       H  1.21164e+01  6.22148e+00  6.10896e+00
       H  9.50437e+00  5.97052e+00  1.20603e+01
       H  1.06093e+01  1.16392e+01 -3.02168e-01
       H  8.39121e+00  5.09560e+00  2.46999e+00
       H  1.29548e+01 -1.49959e+00  1.09327e+01
       H  1.00933e+01  1.39418e+01  1.55306e+00
       H  1.16725e+01  4.02862e+00  8.11767e+00
       H -1.51789e+00  4.12262e+00  4.61355e-01
       H  7.37417e+00 -9.75986e-01  1.30254e+01
       H  8.54123e+00  1.16606e+01  7.32589e+00
       H  1.38494e+01  8.60904e+00  1.37413e+01
       O  1.22021e+01  1.50940e+01  3.85562e+00
       O  8.30474e+00  7.31591e+00  1.15086e+01
       O  1.40275e+01 -9.19292e-02  1.15606e+01
       O  1.30446e+01  9.64268e+00  1.51429e+01
       O  7.63990e+00  3.50969e+00  1.53522e+00
       O  1.30221e+01  5.21613e+00  7.50703e+00
       O  1.14034e+01  3.65583e+00  1.36733e+01
       O  1.02100e+01  7.43642e+00  3.81228e+00
       O  1.47331e+01  1.11877e+01  5.92343e+00
       O  9.34210e+00  2.12624e+00  8.01961e+00
       O  1.09661e+01  1.12852e+01  9.39022e+00
       O  9.23707e+00  1.28743e+01  2.29766e-01
72
# CELL(abcABC):   15.11781    15.11781    15.11781    90.00000    90.00000    90.00000  Step:           2  Bead:       0 positions{atomic_unit}  cell{atomic_unit}
       H  1.08113e+00  1.20541e+00  9.29205e+00
       H  3.70375e+00  8.10604e+00  2.38734e+00
       H  2.87569e+00  9.74295e+00  1.01628e+01
       H  2.93786e-01  3.27433e+00  7.25734e+00
       H  2.44344e+00  3.26051e+00  1.46234e+01
       H  5.57243e+00  1.64862e+01  3.36838e+00
       H  4.90776e+00  1.08685e+01  8.22037e+00
       H  7.18493e+00  6.69971e+00  1.01287e+01
       H  1.47814e+00  8.79733e+00  4.43181e+00
       H  4.53617e+00  2.18517e+00  1.27259e+01
       H  6.34680e+00  1.25710e+01  5.38563e+00
       H  3.34871e+00  1.58099e+01  5.24948e+00
       H  6.92761e+00  1.08840e+01  1.56955e+01
       H  4.70291e+00  6.26862e+00  6.17513e+00
       H  2.00608e+00  6.03671e+00  1.17630e+01
       H  3.06850e+00  1.15801e+01 -1.38977e-01
       H  8.54540e-01  5.10936e+00  2.44571e+00
       H  5.24923e+00 -1.53975e+00  1.08655e+01
       H  2.52698e+00  1.40314e+01  1.68193e+00
       H  4.07548e+00  3.98272e+00  7.94074e+00
       H  6.26474e+00  4.09128e+00  3.42018e-01
       H  1.51984e+01 -8.96395e-01  1.30271e+01
       H  1.60460e+01  1.16561e+01  7.28043e+00
       H  6.17798e+00  8.47267e+00  1.39312e+01
       O  4.40845e+00  1.50691e+01  3.86417e+00
       O  9.22131e-01  7.41315e+00  1.11846e+01
       O  6.35962e+00 -1.67844e-01  1.15941e+01
       O  5.49450e+00  9.64739e+00  1.52404e+01
       O  7.24434e-02  3.58439e+00  1.54683e+00
       O  5.48874e+00  5.24214e+00  7.57463e+00
       O  3.82138e+00  3.81299e+00  1.34647e+01
       O  2.61196e+00  7.40759e+00  3.74569e+00
       O  7.17038e+00  1.10786e+01  6.17131e+00
       O  1.73843e+00  2.14537e+00  7.75494e+00
       O  3.51767e+00  1.14310e+01  9.29786e+00
       O  1.72272e+00  1.29692e+01  1.82525e-01
       H  8.54743e+00  1.14112e+00  9.34239e+00
       H  1.12932e+01  8.12832e+00  2.48325e+00
       H  1.03039e+01  9.67312e+00  1.01984e+01
       H  7.96936e+00  3.31995e+00  7.49594e+00
       H  9.99274e+00  3.06448e+00  1.50196e+01
       H  1.33915e+01  1.64490e+01  3.10080e+00
       H  1.23847e+01  1.08954e+01  8.21841e+00
       H -1.82115e-01  6.81516e+00  9.81897e+00
       H  9.17814e+00  8.92441e+00  4.56320e+00
       H  1.22342e+01  2.09473e+00  1.27754e+01
       H  1.40522e+01  1.27484e+01  5.19059e+00
       H  1.13134e+01  1.59473e+01  5.16600e+00
       H  1.43693e+01  1.09513e+01  1.55901e+01
       H  1.21188e+01  6.21880e+00  6.10926e+00
       H  9.50332e+00  5.96259e+00  1.20597e+01
       H  1.06090e+01  1.16363e+01 -2.97747e-01
       H  8.39500e+00  5.09458e+00  2.47161e+00
       H  1.29519e+01 -1.49927e+00  1.09340e+01
       H  1.00954e+01  1.39440e+01  1.54849e+00
       H  1.16773e+01  4.02802e+00  8.11202e+00
       H -1.51575e+00  4.12149e+00  4.59484e-01
       H  7.36775e+00 -9.81747e-01  1.30251e+01
       H  8.53554e+00  1.16606e+01  7.32082e+00
       H  1.38526e+01  8.61178e+00  1.37465e+01
       O  1.22019e+01  1.50946e+01  3.85562e+00
       O  8.30499e+00  7.31587e+00  1.15086e+01
       O  1.40259e+01 -9.15406e-02  1.15609e+01
       O  1.30454e+01  9.64266e+00  1.51442e+01
       O  7.64090e+00  3.50986e+00  1.53432e+00
       O  1.30227e+01  5.21639e+00  7.50678e+00
       O  1.14029e+01  3.65623e+00  1.36738e+01
       O  1.02090e+01  7.43641e+00  3.81248e+00
       O  1.47347e+01  1.11871e+01  5.92284e+00
       O  9.34271e+00  2.12635e+00  8.02037e+00
       O  1.09652e+01  1.12851e+01  9.39094e+00
       O  9.23657e+00  1.28759e+01  2.28755e-01
72
# CELL(abcABC):   15.11781    15.11781    15.11781    90.00000    90.00000    90.00000  Step:           3  Bead:       0 positions{atomic_unit}  cell{atomic_unit}
       H  1.07947e+00  1.20652e+00  9.28883e+00
       H  3.70224e+00  8.10939e+00  2.38605e+00
       H  2.87721e+00  9.74330e+00  1.01625e+01
       H  2.97860e-01  3.27391e+00  7.25417e+00
       H  2.44315e+00  3.25777e+00  1.46210e+01
       H  5.57583e+00  1.64846e+01  3.37061e+00
       H  4.91023e+00  1.08650e+01  8.22097e+00
       H  7.17955e+00  6.69691e+00  1.01325e+01
       H  1.48431e+00  8.79482e+00  4.43527e+00
       H  4.53509e+00  2.19085e+00  1.27290e+01
       H  6.34621e+00  1.25680e+01  5.38591e+00
       H  3.35029e+00  1.58074e+01  5.24941e+00
       H  6.92703e+00  1.08813e+01  1.56970e+01
       H  4.70297e+00  6.26633e+00  6.18143e+00
       H  2.00661e+00  6.03634e+00  1.17605e+01
       H  3.06694e+00  1.15803e+01 -1.38098e-01
       H  8.54181e-01  5.11343e+00  2.44752e+00
       H  5.24301e+00 -1.54179e+00  1.08637e+01
       H  2.52829e+00  1.40352e+01  1.68244e+00
       H  4.07606e+00  3.98319e+00  7.94170e+00
       H  6.26556e+00  4.09227e+00  3.43544e-01
       H  1.51960e+01 -9.00269e-01  1.30276e+01
       H  1.60382e+01  1.16517e+01  7.27882e+00
       H  6.18253e+00  8.46636e+00  1.39324e+01
       O  4.40881e+00  1.50680e+01  3.86425e+00
       O  9.20576e-01  7.41314e+00  1.11837e+01
       O  6.36131e+00 -1.66778e-01  1.15941e+01
       O  5.49507e+00  9.64679e+00  1.52399e+01
       O  7.21242e-02  3.58316e+00  1.54674e+00
       O  5.48860e+00  5.24285e+00  7.57537e+00
       O  3.82143e+00  3.81266e+00  1.34638e+01
       O  2.61115e+00  7.40785e+00  3.74657e+00
       O  7.17046e+00  1.10796e+01  6.17052e+00
       O  1.73774e+00  2.14496e+00  7.75436e+00
       O  3.51790e+00  1.14307e+01  9.29784e+00
       O  1.72313e+00  1.29691e+01  1.82749e-01
       H  8.54581e+00  1.14331e+00  9.34500e+00
       H  1.12967e+01  8.12394e+00  2.48637e+00
       H  1.03006e+01  9.67699e+00  1.02007e+01
       H  7.96562e+00  3.32176e+00  7.49649e+00
       H  9.99382e+00  3.06640e+00  1.50162e+01
       H  1.33932e+01  1.64490e+01  3.10047e+00
       H  1.23827e+01  1.08989e+01  8.21373e+00
       H -1.83818e-01  6.81682e+00  9.82463e+00
       H  9.18199e+00  8.92291e+00  4.56358e+00
       H  1.22330e+01  2.09629e+00  1.27712e+01
       H  1.40520e+01  1.27505e+01  5.19600e+00
       H  1.13127e+01  1.59521e+01  5.16676e+00
       H  1.43764e+01  1.09448e+01  1.55907e+01
       H  1.21213e+01  6.21597e+00  6.10976e+00
       H  9.50213e+00  5.95472e+00  1.20590e+01
       H  1.06085e+01  1.16335e+01 -2.93252e-01
       H  8.39860e+00  5.09326e+00  2.47304e+00
       H  1.29491e+01 -1.49883e+00  1.09354e+01
       H  1.00974e+01  1.39461e+01  1.54379e+00
       H  1.16821e+01  4.02751e+00  8.10634e+00
       H -1.51329e+00  4.12028e+00  4.57760e-01
       H  7.36121e+00 -9.87383e-01  1.30246e+01
       H  8.52980e+00  1.16607e+01  7.31571e+00
       H  1.38557e+01  8.61468e+00  1.37519e+01
       O  1.22017e+01  1.50952e+01  3.85561e+00
       O  8.30526e+00  7.31583e+00  1.15085e+01
       O  1.40242e+01 -9.11710e-02  1.15612e+01
       O  1.30461e+01  9.64263e+00  1.51455e+01
       O  7.64189e+00  3.51006e+00  1.53343e+00
       O  1.30232e+01  5.21665e+00  7.50652e+00
       O  1.14024e+01  3.65660e+00  1.36743e+01
       O  1.02081e+01  7.43641e+00  3.81269e+00
       O  1.47363e+01  1.11865e+01  5.92227e+00
       O  9.34332e+00  2.12646e+00  8.02113e+00
       O  1.09642e+01  1.12849e+01  9.39166e+00
       O  9.23608e+00  1.28775e+01  2.27748e-01
