72
Lattice="1889.72612 0.0 0.0 1.1571235220615735e-13 1889.72612 0.0 1.1571235220615735e-13 1.1571235220615735e-13 1889.72612" Properties=species:S:1:pos:R:3 step=1.0 time=0.0 conserved=-1822.11608 kinetic_md=0.0 potential=-1822.11608 dipole="0.6544368487311569 -0.3993691218338068 0.6017481862618559" pbc="T T T"
H        1.08460000       1.20354000       9.29778000
H        3.70657000       8.09945000       2.39018000
H        2.87291000       9.74343000      10.16280000
H        0.28590400       3.27498000       7.26384000
H        2.44415000       3.26615000      14.62800000
H        5.56532000      16.48910000       3.36396000
H        4.90286000      10.87550000       8.21901000
H        7.19601000       6.70519000      10.12150000
H        1.46634000       8.80186000       4.42447000
H        4.53816000       2.17444000      12.71990000
H        6.34826000      12.57660000       5.38514000
H        3.34577000      15.81460000       5.24934000
H        6.92820000      10.88890000      15.69230000
H        4.70310000       6.27288000       6.16301000
H        2.00499000       6.03731000      11.76790000
H        3.07104000      11.58050000      -0.14061000
H        0.85484000       5.10067000       2.44177000
H        5.26196000      -1.53531000      10.86960000
H        2.52397000      14.02310000       1.67999000
H        4.07474000       3.98218000       7.93876000
H        6.26353000       4.08917000       0.33930200
H       15.20250000      -0.88811000      13.02500000
H       16.06110000      11.66470000       7.28289000
H        6.16891000       8.48568000      13.92890000
O        4.40773000      15.07120000       3.86401000
O        0.92523100       7.41319000      11.18640000
O        6.35624000      -0.17001900      11.59420000
O        5.49341000       9.64859000      15.24140000
O        0.07304510       3.58690000       1.54703000
O        5.48898000       5.24074000       7.57312000
O        3.82128000       3.81358000      13.46660000
O        2.61356000       7.40711000       3.74396000
O        7.17023000      11.07670000       6.17288000
O        1.73977000       2.14616000       7.75613000
O        3.51718000      11.43150000       9.29793000
O        1.72196000      12.96940000       0.18212000
H        8.55060000       1.13660000       9.33736000
H       11.28630000       8.13720000       2.47701000
H       10.31070000       9.66599000      10.19350000
H        7.97707000       3.31609000       7.49498000
H        9.99144000       3.06108000      15.02520000
H       13.38750000      16.44830000       3.10183000
H       12.38820000      10.88830000       8.22791000
H       -0.17861000       6.81169000       9.80778000
H        9.17096000       8.92650000       4.56188000
H       12.23610000       2.09238000      12.78430000
H       14.05280000      12.74410000       5.17974000
H       11.31450000      15.93810000       5.16498000
H       14.35480000      10.96390000      15.58860000
H       12.11420000       6.22399000       6.10886000
H        9.50528000       5.97848000      12.06090000
H       10.60950000      11.64230000      -0.30651000
H        8.38725000       5.09632000       2.46819000
H       12.95770000      -1.49981000      10.93150000
H       10.09120000      13.93950000       1.55750000
H       11.66780000       4.02930000       8.12327000
H       -1.51971000       4.12366000       0.46337200
H        7.38045000      -0.97011000      13.02550000
H        8.54683000      11.66050000       7.33089000
H       13.84610000       8.60646000      13.73630000
O       12.20230000      15.09340000       3.85560000
O        8.30448000       7.31594000      11.50870000
O       14.02920000      -0.09233600      11.56040000
O       13.04390000       9.64270000      15.14160000
O        7.63890000       3.50954000       1.53613000
O       13.02160000       5.21589000       7.50726000
O       11.40390000       3.65542000      13.67280000
O       10.21090000       7.43645000       3.81210000
O       14.73150000      11.18830000       5.92403000
O        9.34148000       2.12614000       8.01884000
O       10.96710000      11.28540000       9.38951000
O        9.23759000      12.87270000       0.23078000
